(written by ASE)

12 atoms
2 atom types

0.0      5.0792160650310079  xlo xhi
0.0      5.0792160650310079  ylo yhi
0.0      5.0792160650310079  zlo zhi

Masses

     1      15.998999995884349 # O
     2       91.22399997653315 # Zr

Atoms # atomic

     1   2      2.5396080325155039                       0                       0
     2   2      2.5396080325155039      2.5396080325155039      2.5396080325155039
     3   2                       0                       0      2.5396080325155039
     4   2                       0      2.5396080325155039                       0
     5   1       1.269804016257752       1.269804016257752      3.8094120487732557
     6   1       1.269804016257752      3.8094120487732557      3.8094120487732557
     7   1       1.269804016257752      3.8094120487732557       1.269804016257752
     8   1       1.269804016257752       1.269804016257752       1.269804016257752
     9   1      3.8094120487732557       1.269804016257752       1.269804016257752
    10   1      3.8094120487732557      3.8094120487732557       1.269804016257752
    11   1      3.8094120487732557      3.8094120487732557      3.8094120487732557
    12   1      3.8094120487732557       1.269804016257752      3.8094120487732557
