(written by ASE)

12 atoms
2 atom types

0.0       4.010339512213891  xlo xhi
0.0       4.010339512213891  ylo yhi
0.0      10.632964062290906  zlo zhi

Masses

     1      15.998999995884349 # O
     2       91.22399997653315 # Zr

Atoms # atomic

     1   2                       0                       0                       0
     2   2                       0      2.0051697561069455      2.6582410155727261
     3   2      2.0051697561069455      2.0051697561069455      5.3164820311454521
     4   2      2.0051697561069455                       0      7.9747230467181787
     5   1      2.0051697561069455      2.0051697561069455      3.1658533023801136
     6   1                       0                       0      2.1506287287653385
     7   1                       0      2.0051697561069455      4.8088697443380646
     8   1                       0      2.0051697561069455     0.50761228680738613
     9   1                       0                       0      8.4823353335255653
    10   1      2.0051697561069455      2.0051697561069455      7.4671107599107911
    11   1      2.0051697561069455                       0      10.125351775483518
    12   1      2.0051697561069455                       0      5.8240943179528388
