(written by ASE)

12 atoms
2 atom types

0.0      5.1405286173571785  xlo xhi
0.0        5.22238731981263  ylo yhi
0.0      5.2315929129405792  zlo zhi
                      0    -0.86186696790941997                       0  xy xz yz

Masses

     1      15.998999995884349 # O
     2       91.22399997653315 # Zr

Atoms # atomic

     1   2      3.3807660085939824      2.8260265799907831      3.7075420430517472
     2   2     0.89789564085377604      2.3963607398218469       1.524050869888832
     3   2     0.46696215689906617     0.21483292008446747      4.1398473263591216
     4   2      3.8116994925486924      5.0075543997281624      1.0917455865814576
     5   1      2.2159924699061113       4.379314416659267      4.3886494992558029
     6   1      4.0321973602731251      1.3463827332138694      5.1290684258305657
     7   1       2.062669179541647     0.84307290315336292     0.84294341368477643
     8   1      1.6317356955869373      1.7681207567529522      3.4587398701550658
     9   1      2.6469259538608214      3.4542665630596781      1.7728530427855131
    10   1     0.24646428917463364      3.8760045865987607     0.10252448711001319
    11   1      4.4631308442278348      1.2648109266924457      2.5132719693602756
    12   1    -0.18446919478007628      3.9575763931201844      2.7183209435803026
