(written by ASE)

6 atoms
2 atom types

0.0      3.8302887118278459  xlo xhi
0.0      3.4798487730676926  ylo yhi
0.0      5.2651263960342423  zlo zhi
                      0     -1.2607361054172639                       0  xy xz yz

Masses

     1      15.998999995884349 # O
     2       91.22399997653315 # Zr

Atoms # atomic

     1   2      2.2558329003362467      2.6098865798007695        3.85052492056013
     2   2     0.31371970607433525     0.86996219326692314      1.4146014754741123
     3   1     0.30359817652554766      2.6098865798007695      2.9549800492236131
     4   1     0.80978723622470383      2.6098865798007695     0.40370258425635086
     5   1      2.2659544298850345     0.86996219326692314      2.3101463468106291
     6   1      1.7597653701858782     0.86996219326692314      4.8614238117778914
