(written by ASE)

12 atoms
2 atom types

0.0      5.2694438679006144  xlo xhi
0.0      5.0641079708651944  ylo yhi
0.0      5.0906803194770189  zlo zhi

Masses

     1      15.998999995884349 # O
     2       91.22399997653315 # Zr

Atoms # atomic

     1   2      5.1039518126844676      3.7106721671984024      3.8130523535711478
     2   2      2.4692298787341613      1.3534358036667922      3.8130523535711478
     3   2      2.8002139891664535      3.7106721671984024       1.267712193832639
     4   2     0.16549205521614635      1.3534358036667922       1.267712193832639
     5   1      3.3409041004077542      4.7204228916803705      4.5331101162660659
     6   1     0.70618216645744691     0.34368507918482405      4.5331101162660659
     7   1      4.5632617014431673      4.7204228916803705      1.9877699565275575
     8   1      1.9285397674928602     0.34368507918482405      1.9877699565275575
     9   1      4.0357633516947642      2.3425219406738131   0.0084219937972607878
    10   1      1.4010414177444568      2.7215860301913812   0.0084219937972607878
    11   1      3.8684024501561574      2.3425219406738131      2.5537621535357702
    12   1      1.2336805162058504      2.7215860301913812      2.5537621535357702
