(written by ASE)

24 atoms
2 atom types

0.0      5.0865118153648012  xlo xhi
0.0       10.07769661906876  ylo yhi
0.0      5.2558899971596249  zlo zhi

Masses

     1      15.998999995884349 # O
     2       91.22399997653315 # Zr

Atoms # atomic

     1   2      1.2494670315212484      3.8743090107802316      5.0812499816909087
     2   2       3.792722939203649      1.1645392987541485     0.17464001546871641
     3   2      1.2937888761611522      6.2033876082885291      2.4533049831110962
     4   2      3.8370447838435529      8.9131573203146122      2.8025850140485287
     5   2      3.8370447838435529      6.2033876082885291     0.17464001546871641
     6   2      1.2937888761611522      8.9131573203146122      5.0812499816909087
     7   2       3.792722939203649      3.8743090107802316      2.8025850140485287
     8   2      1.2494670315212484      1.1645392987541485      2.4533049831110962
     9   1    0.017865347178342258      4.8116215078030118      1.3733864234861082
    10   1      2.5611212548607427     0.22722680173136844       3.882503573673517
    11   1      2.5253905605040585      5.2660751112657485      4.0013314220659204
    12   1      5.0686464681864587       9.850469817337391      1.2545585750937043
    13   1      5.0686464681864587      5.2660751112657485       3.882503573673517
    14   1      2.5253905605040585       9.850469817337391      1.3733864234861082
    15   1      2.5611212548607427      4.8116215078030118      1.2545585750937043
    16   1    0.017865347178342258     0.22722680173136844      4.0013314220659204
    17   1      1.8813604716674381       2.927346341011539      3.2798348305455076
    18   1       4.424616379349839      2.1115019685228411      1.9760551666141173
    19   1     0.66189543601496248      7.1503502780572212     0.65188983196569517
    20   1      3.2051513436973629      7.9661946505459191      4.6040001651939297
    21   1      3.2051513436973629      7.1503502780572212      1.9760551666141173
    22   1     0.66189543601496248      7.9661946505459191      3.2798348305455076
    23   1       4.424616379349839       2.927346341011539      4.6040001651939297
    24   1      1.8813604716674381      2.1115019685228411     0.65188983196569517
