(written by ASE)

24 atoms
2 atom types

0.0       10.14734807436119  xlo xhi
0.0      5.2583845751571676  ylo yhi
0.0      5.1420056131000038  zlo zhi
                      0    -0.41411066344624492                       0  xy xz yz

Masses

     1      15.998999995884349 # O
     2       91.22399997653315 # Zr

Atoms # atomic

     1   2      6.3811050264515998      1.4998217259614697     0.31588023232396029
     2   2      6.1740496947284775      3.7585628491956977      2.8868830388739624
     3   2      8.4618288837770539      1.1162543389672828      3.1207449880192195
     4   2      8.6688842155001762      4.1421302361898844     0.54974218146921761
     5   2      1.1788579520265625      3.7495358032845099      2.4856592021480179
     6   2     0.97180262030344011      1.5088487718726578      5.0566620086980203
     7   2       3.477360270268401      1.1295172577419179        2.66626596735615
     8   2      3.6844156019915233      4.1288673174152501    0.095263160806148203
     9   1      7.4516658077809277      2.6978325578714086      4.3156329570265717
    10   1        7.65872113950405       2.560552017285759      1.7446301504765702
    11   1      6.9812632457559083      5.2238653014358176      4.2584907743475862
    12   1      7.1883185774790306     0.03451927372134965      1.6874879677975847
    13   1    0.099571997345051511      2.0968399820700783      3.1586135212646287
    14   1     0.30662732906817397      3.1615445930870893       0.587610714714627
    15   1      4.5893314288635558     0.65127085669075924     0.83261080271243226
    16   1      4.3822760971404335      4.6071137184664082      3.4036136092624343
    17   1      2.6499233944070477      2.6043065991465562      1.3709610588552423
    18   1      2.4428680626839254      2.6540779760106115      3.9419638654052442
    19   1      2.1944671656271595      5.2142306283501432      1.2671549058004092
    20   1       1.987411833904037     0.04415394680702401      3.8381577123504109
    21   1       5.156191836506081      1.9844337645893193      3.4757239053397218
    22   1      5.3632471682292033      3.2739508105678485      0.9047210987897194
    23   1      9.3215354942250688     0.53766572339193941      5.0294560409631872
    24   1      9.5285908259481911      4.7207188517652279      2.4584532344131862
