(written by ASE)

12 atoms
2 atom types

0.0      5.5638540189585841  xlo xhi
0.0      3.3403278792492261  ylo yhi
0.0      6.4874638729826497  zlo zhi

Masses

     1      15.998999995884349 # O
     2       91.22399997653315 # Zr

Atoms # atomic

     1   2      4.1566655010394449     0.83508196981230653     0.71190214926972162
     2   2      4.1891155273984317      2.5052459094369195      3.9556340857610466
     3   2      1.4071885179191395      2.5052459094369195      5.7755617237129284
     4   2      1.3747384915601526     0.83508196981230653      2.5318297872216031
     5   1      4.7832850189020961     0.83508196981230653      2.7623935749545474
     6   1      3.5624960095357805      2.5052459094369195      6.0061255114458723
     7   1     0.78056900005648844      2.5052459094369195      3.7250702980281023
     8   1      2.0013580094228032     0.83508196981230653     0.48133836153677723
     9   1      2.6553026917436755     0.83508196981230653      4.2875388454740131
    10   1     0.12662431773561669      2.5052459094369195      1.0438069089826876
    11   1      2.9085513272149086      2.5052459094369195      2.1999250275086366
    12   1      5.4372297012229671     0.83508196981230653      5.4436569639999615
