(written by ASE)

6 atoms
2 atom types

0.0       3.594484051362417  xlo xhi
0.0       3.594484051362417  ylo yhi
0.0      5.2062804029198428  zlo zhi

Masses

     1      15.998999995884349 # O
     2       91.22399997653315 # Zr

Atoms # atomic

     1   2                       0                       0                       0
     2   2      1.7972420256812085      1.7972420256812085       2.603140201459921
     3   1                       0      1.7972420256812085       1.036603880788362
     4   1      1.7972420256812085                       0      4.1696765221314802
     5   1                       0      1.7972420256812085      3.6397440822482832
     6   1      1.7972420256812085                       0       1.566536320671559
